<VTKFile type="UnstructuredGrid" version="0.1" byte_order="LittleEndian"> 
<UnstructuredGrid> 
<Piece NumberOfPoints="635" NumberOfCells="1115">
<Points>
<DataArray type="Float32" NumberOfComponents="3" format="ascii">
-28.0259964427 43.6165672259 -11.6870239648 
-21.4706917808 7.91032962877 29.5217520797 
-16.2120284735 -25.568930865 6.85117437663 
-23.5810883437 -9.4523437251 -35.2766270333 
2.91156302699e-10 47.6235163041 5.00543326182 
2.41260903528e-10 5.9766801385 33.9023575195 
2.47355755975e-10 -35.9859885349 -3.78227980525 
2.72022725145e-10 16.0846779257 -39.8109748757 
30.254465555 26.6474233233 17.9739139835 
28.5166785918 8.39643495255 27.4652157069 
28.6632265216 -24.0553687712 -16.225551112 
28.840250784 29.259842157 -2.55990448529 
53.7571885321 0.0 0.0 
-22.2297474103 31.648628383 -8.4802244168 
-22.9708560555 3.53310435228 13.1857249514 
-15.3893472265 -23.7396453916 6.36101881131 
-33.1517660187 -7.46447153722 -27.8577870291 
-24.2858152553 13.4766126749 -3.61104748295 
2.5771302873e-10 38.8688097837 4.08527652802 
2.17077458635e-10 4.6675894962 26.476619827 
2.17399317233e-10 -26.8452787611 -2.82155249469 
2.46924174635e-10 13.5087101424 -33.4352308804 
2.02942431331e-10 21.6792426606 2.27858022099 
26.9676277759 21.128881795 14.2516107221 
26.0280673482 6.84373435672 22.3862438535 
24.6757129483 -16.7483203773 -11.2968847373 
26.2921558066 23.9120388409 -2.09203232037 
47.2185947508 0.0 0.0 
-22.4147992332 9.27800910362 -2.48603504669 
-18.8365346529 2.9794921821 11.1196162046 
-14.2787307018 -20.3033165184 5.44025726479 
-18.8591070698 -3.00805060958 -11.2261977069 
1.74476847693e-10 5.17725924541 0.544151873763 
1.8118892927e-10 1.953956313 11.0836993056 
1.97089538785e-10 -19.3236961472 -2.03100230607 
1.89963598352e-10 6.06927880751 -15.0219921863 
21.7780451422 9.58172907633 6.46295786806 
22.4433418112 4.06767939274 13.3056103667 
22.4767919068 -11.6257544423 -7.84167038608 
22.5500696672 14.2068532995 -1.24293860808 
42.5761747245 0.0 0.0 
29.6651238258 18.440675734 24.9211429579 
2.68755231803e-10 30.767977631 28.6926072987 
-24.0797408596 31.6706467472 18.2850564249 
26.9665570935 -20.4852677163 15.1583007217 
2.32627347889e-10 -21.7219585595 23.2939486797 
-17.4759507637 -11.9414991212 20.6832831966 
29.0594596319 7.46358570655 -28.8595445869 
2.56848750594e-10 -20.0065979871 -33.2965705419 
-19.803783532 -27.7858710716 -16.0421801429 
29.6468997289 29.9801719586 7.75284140359 
2.89336218463e-10 40.6498698565 -24.4249059654 
-28.1235832298 23.380507258 -40.4962264779 
26.8357787566 -7.89190956924 23.932968839 
2.29543902206e-10 -8.77701715944 29.6307133498 
-20.0274301739 -3.83336215811 29.117276379 
28.8598017127 22.4472408869 -19.0029921264 
2.64602399948e-10 -3.21352467654 -40.8317024622 
-20.7904455887 -19.3376888586 -25.2013667728 
22.255202521 7.90091944166 10.6774798139 
1.74293719183e-10 3.61530499689 3.37132645059 
-20.0114230475 6.12723207957 3.53755909053 
20.4012068532 -3.12691191517 2.31379310228 
1.89097773221e-10 -10.757602742 11.5361165754 
-17.2560389681 -9.33793769944 16.1737825335 
23.3319810278 4.16378174787 -16.1001494091 
1.97668754701e-10 -10.1328633709 -16.8639166058 
-17.740612973 -17.8908940777 -10.3293125118 
21.4744214687 10.0049651556 2.58745992012 
1.75762737432e-10 5.80624641205 -3.48874481338 
-20.5876940249 5.08580761944 -8.80887719446 
20.6012641383 -1.76769222615 5.36069535443 
1.90113080676e-10 -4.62226564325 15.604507296 
-18.0423401362 -1.95185169521 14.8257855418 
21.9156453843 9.21718182215 -7.80292038904 
1.98878542854e-10 -1.58299896545 -20.1139089509 
-18.5158744464 -10.3219860738 -13.4518741496 
26.4351182462 14.4669999469 19.551028338 
2.38091669668e-10 24.4942685243 22.8420741936 
-22.5690551784 19.324009254 11.1567219446 
26.4208222715 23.5162432138 6.08127612798 
2.60148741893e-10 34.0726101289 -20.472889614 
-29.7835356799 17.5314082211 -30.3652897675 
2.07814952303e-10 17.2859190578 16.1199443549 
-23.8381099903 12.4958671963 7.21449228954 
2.33093138077e-10 27.4226431198 -16.4771863204 
-29.0621338996 11.5925540898 -20.0788926731 
23.1105692374 -5.00649679511 15.1826792665 
2.05225536271e-10 -6.43937498194 21.7389656162 
-18.7740193905 -2.80912429722 21.3374174345 
22.9672126127 -12.5078170774 9.25529777091 
2.08909707336e-10 -16.3918554602 17.5781128948 
-17.3004245374 -10.5122449786 18.2077424047 
25.3873892732 5.49008861587 -21.2285975435 
2.2556610001e-10 -15.2742510488 -25.420622629 
-18.4607659308 -22.0201993275 -12.7133680094 
25.7213150002 17.3306448842 -14.6714738768 
2.32286356163e-10 -2.49080085036 -31.6486255597 
-19.1902021958 -13.9993520902 -18.2443108474 
2.63556274171e-10 39.7114986301 -8.80382729183 
-12.1780990581 39.9114067425 -3.14109583241 
-14.0644605203 37.2771304411 -17.3826113987 
2.73587079306e-10 43.1125980662 4.53131665008 
2.79501888119e-10 43.8320055634 -9.71732168634 
-13.1391087981 43.8681065596 -3.4524948614 
-14.1924454661 40.9455303536 -19.0932143711 
2.97068964932e-10 48.2067933171 -10.6871887815 
-14.2001699024 48.0554981151 -3.78204972397 
-14.3130605052 44.8374069565 -20.9080262357 
-25.3849627092 25.9737148029 -19.9303323463 
-24.8842497565 37.3582200912 -10.0101049041 
-26.9388104068 31.4713330709 -24.148803213 
-28.0259964427 43.6165672259 -11.6870239648 
-28.7147144931 37.6707334717 -28.9057704498 
-15.5579106363 28.1787727711 -28.6749274967 
2.74099438965e-10 37.273795135 -22.3963556183 
-14.9778749874 31.4953648211 -32.0499160862 
-14.2774578294 35.0399850176 -35.6569478035 
-29.0907324675 20.3348471115 -35.2209883616 
2.52383219677e-10 24.4220394554 -28.5945343 
-16.4713508142 15.0788759344 -33.867709858 
2.64729962891e-10 26.6223868316 -31.1708100708 
-15.2333790824 17.2095678075 -38.653322159 
2.78167694262e-10 28.9324486823 -33.8755449864 
-13.7470699317 19.4960140708 -43.788764548 
-33.2034597464 4.54141337263 -34.4954593039 
-29.9356618439 5.06223118339 -38.4514633321 
-26.2090368938 5.57619618139 -42.3554150795 
-16.9355305566 1.99492341977 -32.6167096015 
2.58926695606e-10 14.7655149063 -36.5459318288 
-14.9890211637 2.29905890191 -37.58928078 
-12.69721065 2.62228715846 -42.8740160608 
-28.6821150931 -8.49268881492 -31.6951461507 
2.37892703267e-10 5.08597339306 -33.0440997338 
-13.4283899087 -4.57545376497 -29.7272004498 
2.52171222393e-10 5.71146277893 -37.1079695286 
-12.6828875757 -5.27816873308 -34.292812909 
2.68155112558e-10 6.37557736206 -41.4227912596 
-11.8159939685 -6.03157561013 -39.1877759891 
-25.058226668 -10.9133061388 -22.1299956621 
-23.4733665119 -12.6243080602 -25.5995643352 
-21.6297881302 -14.435943273 -29.2731971364 
-10.5690822788 -10.7222370325 -27.9323824427 
2.47418670178e-10 -2.84038754905 -36.0905457261 
-10.8946479719 -12.137891013 -31.6202871469 
-11.2614874433 -13.6413641429 -35.5369685567 
-19.1902021958 -13.9993520902 -18.2443108474 
-19.9236039868 -16.5707607235 -21.5954358223 
2.29638461684e-10 -9.43024737031 -29.4600844174 
-10.1199600547 -16.1532244097 -24.6377617285 
2.44391649306e-10 -10.7721318638 -33.6521303843 
-10.4322482321 -18.1217835414 -27.6403133927 
2.61169895682e-10 -12.2032755443 -38.1230219724 
-10.7819220285 -20.2002384488 -30.8104839712 
-18.7402262388 -17.9499491996 -15.74168296 
-19.3818867441 -20.6773519959 -18.1335510175 
-20.1206187395 -23.578402451 -20.6777039846 
-9.65773361042 -20.5866827776 -20.2304768222 
2.40156120685e-10 -17.5635385775 -29.2306368923 
-10.0233379088 -23.2035661066 -22.8020809076 
-10.4346170778 -25.9688778786 -25.5195452177 
-19.0928334551 -24.825254933 -14.3328676183 
2.21955173692e-10 -24.0346306035 -15.311748387 
-8.84347249554 -26.6374899964 -9.69525347428 
2.35613368775e-10 -27.6236872581 -17.598229646 
-9.26784167567 -29.8996743672 -10.882591484 
2.51230132164e-10 -31.4423695857 -20.0309985925 
-9.74267703628 -33.3338727958 -12.1325374905 
-17.2562241013 -26.1310438371 -3.44021718574 
-17.7394096629 -28.1307083727 -3.70347801619 
-18.259012908 -30.1945557403 -3.97518867677 
-7.95456465042 -26.9691852659 2.12252091209 
2.31285452715e-10 -31.2679924092 -3.28639843048 
-8.51039752901 -30.8637972304 2.42903352113 
-9.14187794995 -34.9870278527 2.75353880873 
-15.7937511396 -24.6491647039 6.60472377652 
2.12941939812e-10 -23.8553206806 8.91913892669 
-8.49179923653 -22.25906637 12.3384019658 
2.25755446536e-10 -27.834691277 10.4069646267 
-8.95635079793 -25.7450895387 14.2707361618 
2.40604057162e-10 -32.064981573 11.9886053581 
-9.49095015076 -29.441576029 16.3197320819 
-16.1435687941 -17.2975093422 13.2728457432 
-16.351998482 -18.1642728058 13.937936741 
-16.5713051136 -19.0454136078 14.6140598586 
-9.0447194846 -14.3829831111 19.437486101 
2.19937754167e-10 -18.9851940149 20.3591280154 
-9.31079184197 -16.2912144588 22.0163127611 
-9.61461841674 -18.2914563629 24.7194845517 
-17.3831766061 -11.2183701018 19.4307869946 
2.0662299199e-10 -11.5102168261 20.1387026206 
-9.30950696314 -9.65431896089 21.4317933769 
2.16849691268e-10 -13.3026349759 23.2747839506 
-9.50922456298 -10.921283695 24.2443507936 
2.28592218204e-10 -15.1880415082 26.5735612061 
-9.74008989792 -12.2470459991 27.1874339757 
-18.0684655 -6.88085039667 20.2703316193 
-18.295856946 -7.62155809859 22.4523861454 
-18.555024316 -8.39203415059 24.7221354028 
-9.59034850442 -4.78109350588 22.4932764644 
2.16448717344e-10 -7.57543716306 25.5742472643 
-9.85753109903 -5.59730102639 26.3332309411 
-10.1774289433 -6.46259805317 30.404133387 
-19.3471588757 -3.30443234778 25.0996555967 
2.09133478972e-10 -1.36762712207 24.0772535799 
-11.3744546828 0.0994313824289 22.8335172463 
2.20529755376e-10 -1.58971500809 27.9871397342 
-11.0284939554 0.119747061119 27.4988290263 
2.33686593208e-10 -1.82449411087 32.1204564122 
-10.6549740094 0.141595329114 32.516086072 
-21.0095984878 1.14153632509 17.4164787173 
[...]
<CellData>
<DataArray type="Int32" Name="regions" NumberOfComponents="1" format="ascii">
0 0 0 0 0 0 0 0 0 0 0 0 0 0 0 0 0 0 0 0 0 0 0 0 0 0 0 0 0 0 0 0 0 0 0 0 0 0 0 0 0 0 0 0 0 0 0 0 0 0 0 0 0 0 0 0 0 0 0 0 0 0 0 0 0 0 0 0 0 0 0 0 0 0 0 0 0 0 0 0 0 0 0 0 0 0 0 0 0 0 0 0 0 0 0 0 0 0 0 0 0 0 0 0 0 0 0 0 0 0 0 0 0 0 0 0 0 0 0 0 0 0 0 0 0 0 0 0 0 0 0 0 0 0 0 0 0 0 0 0 0 0 0 0 0 0 0 0 0 0 0 0 0 0 0 0 0 0 0 0 0 0 0 0 0 0 0 0 0 0 0 0 0 0 0 0 0 0 0 0 0 0 0 0 0 0 0 0 0 0 0 0 0 0 0 0 0 0 0 0 0 0 0 0 0 0 0 0 0 0 0 0 0 0 0 0 0 0 0 0 0 0 0 0 0 0 0 0 0 0 0 0 0 0 0 0 0 0 0 0 0 0 0 0 0 0 0 0 0 0 0 0 0 0 0 0 0 0 0 0 0 0 0 0 0 0 0 0 0 0 0 0 0 0 0 0 0 0 0 0 0 0 0 0 0 0 0 0 0 0 0 0 0 0 0 0 0 0 0 0 0 0 0 0 0 0 0 0 0 0 0 0 0 0 0 0 0 0 0 0 0 0 0 0 0 0 0 0 0 0 0 0 0 0 0 0 0 0 0 0 0 0 0 0 0 0 0 0 0 0 0 0 0 0 0 0 0 0 0 0 0 0 0 0 0 0 0 0 0 0 0 0 0 0 0 0 0 0 0 0 0 0 0 0 0 0 0 0 0 0 0 0 0 0 0 0 0 0 0 0 0 0 0 0 0 0 0 0 0 0 0 0 0 0 0 0 0 0 0 0 0 0 0 0 0 0 0 0 0 0 0 0 0 0 0 0 0 0 0 0 0 0 0 0 0 0 0 0 0 0 0 0 0 0 0 0 0 0 0 0 0 0 0 0 0 0 0 0 0 0 0 0 0 0 0 0 0 0 0 0 0 0 0 0 0 0 0 0 0 0 0 0 0 0 0 0 0 0 0 0 0 0 0 0 0 0 0 0 0 0 0 0 0 0 0 0 0 0 0 0 0 0 0 0 0 0 0 0 0 0 0 0 0 0 0 0 0 0 0 0 0 0 0 0 0 0 0 0 0 0 0 0 0 0 0 0 0 0 0 0 0 0 0 0 0 0 0 0 0 0 0 0 0 0 0 0 0 0 0 0 0 0 0 0 0 0 0 0 0 0 0 0 0 0 0 0 0 0 0 0 0 0 0 0 0 0 0 0 0 0 0 0 0 0 0 0 0 0 0 0 0 0 0 0 0 0 0 0 0 0 0 0 0 0 0 1 
2 
3 
4 
5 
6 
7 
8 
9 
10 
11 
12 
13 
14 
15 
16 
17 
18 
19 
20 
21 
22 
23 
24 
25 
26 
27 
28 
29 
30 
31 
32 
33 
34 
35 
36 
37 
38 
39 
40 
41 
42 
43 
44 
45 
46 
47 
48 
49 
50 
51 
52 
53 
54 
55 
56 
57 
58 
59 
60 
61 
62 
63 
64 
65 
66 
67 
68 
69 
70 
71 
72 
73 
74 
75 
76 
77 
78 
79 
80 
81 
82 
83 
84 
85 
86 
87 
88 
89 
90 
91 
92 
93 
94 
95 
96 
97 
98 
99 
100 
101 
102 
103 
104 
105 
106 
107 
108 
109 
110 
111 
112 
113 
114 
115 
116 
117 
118 
119 
120 
121 
122 
123 
124 
125 
126 
127 
128 
129 
130 
131 
132 
133 
134 
135 
136 
137 
138 
139 
140 
141 
142 
143 
144 
145 
146 
147 
148 
149 
150 
151 
152 
153 
154 
155 
156 
157 
158 
159 
160 
161 
162 
163 
164 
165 
166 
167 
168 
169 
170 
171 
172 
173 
174 
175 
176 
177 
178 
179 
180 
181 
182 
183 
184 
185 
186 
187 
188 
189 
190 
191 
192 
193 
194 
195 
196 
197 
198 
199 
200 
201 
202 
203 
204 
205 
206 
207 
208 
209 
210 
211 
212 
213 
214 
215 
216 
217 
218 
219 
220 
221 
222 
223 
224 
225 
226 
227 
228 
229 
230 
231 
232 
233 
234 
235 
236 
237 
238 
239 
240 
241 
242 
243 
244 
245 
246 
247 
248 
249 
250 
251 
252 
253 
254 
255 
256 
257 
258 
259 
260 
261 
262 
263 
264 
265 
266 
267 
268 
269 
270 
271 
272 
273 
274 
275 
276 
277 
278 
279 
280 
281 
282 
283 
284 
285 
286 
287 
288 
289 
290 
291 
292 
293 
294 
295 
296 
297 
298 
299 
300 
301 
302 
303 
304 
305 
306 
307 
308 
309 
310 
311 
312 
313 
314 
315 
316 
317 
318 
319 
320 
321 
322 
323 
324 
325 
326 
327 
328 
329 
330 
331 
332 
333 
334 
335 
336 
337 
338 
339 
340 
341 
342 
343 
344 
345 
346 
347 
348 
349 
350 
351 
352 
353 
354 
355 
356 
357 
358 
359 
360 
361 
362 
363 
364 
365 
366 
367 
368 
369 
370 
371 
372 
373 
374 
375 
376 
377 
378 
379 
380 
381 
382 
383 
384 
385 
386 
387 
388 
389 
390 
391 
392 
393 
394 
395 
396 
397 
398 
399 
400 
401 
402 
403 
404 
405 
406 
407 
408 
409 
410 
411 
412 
413 
414 
415 
416 
417 
418 
419 
420 
421 
422 
423 
424 
425 
426 
427 
428 
429 
430 
431 
432 
433 
434 
435 
436 
437 
438 
439 
440 
441 
442 
443 
444 
445 
446 
447 
448 
449 
450 
451 
452 
453 
454 
455 
456 
457 
458 
459 
460 
461 
462 
463 
464 
465 
466 
467 
468 
469 
470 
471 
472 
473 
474 
475 
476 
477 
478 
479 
480 
</DataArray>
</CellData>
<RegionInfo Name="regions">
<Region Name="subset"></Region>
<Region Name="cell 1"></Region>
<Region Name="cell 2"></Region>
<Region Name="cell 3"></Region>
<Region Name="cell 4"></Region>
<Region Name="cell 5"></Region>
<Region Name="cell 6"></Region>
<Region Name="cell 7"></Region>
<Region Name="cell 8"></Region>
<Region Name="cell 9"></Region>
<Region Name="cell 10"></Region>
<Region Name="cell 11"></Region>
<Region Name="cell 12"></Region>
<Region Name="cell 13"></Region>
<Region Name="cell 14"></Region>
<Region Name="cell 15"></Region>
<Region Name="cell 16"></Region>
<Region Name="cell 17"></Region>
<Region Name="cell 18"></Region>
<Region Name="cell 19"></Region>
<Region Name="cell 20"></Region>
<Region Name="cell 21"></Region>
<Region Name="cell 22"></Region>
<Region Name="cell 23"></Region>
<Region Name="cell 24"></Region>
<Region Name="cell 25"></Region>
<Region Name="cell 26"></Region>
<Region Name="cell 27"></Region>
<Region Name="cell 28"></Region>
<Region Name="cell 29"></Region>
<Region Name="cell 30"></Region>
<Region Name="cell 31"></Region>
<Region Name="cell 32"></Region>
<Region Name="cell 33"></Region>
<Region Name="cell 34"></Region>
<Region Name="cell 35"></Region>
<Region Name="cell 36"></Region>
<Region Name="cell 37"></Region>
<Region Name="cell 38"></Region>
<Region Name="cell 39"></Region>
<Region Name="cell 40"></Region>
<Region Name="cell 41"></Region>
<Region Name="cell 42"></Region>
<Region Name="cell 43"></Region>
<Region Name="cell 44"></Region>
<Region Name="cell 45"></Region>
<Region Name="cell 46"></Region>
<Region Name="cell 47"></Region>
<Region Name="cell 48"></Region>
<Region Name="cell 49"></Region>
<Region Name="cell 50"></Region>
<Region Name="cell 51"></Region>
<Region Name="cell 52"></Region>
<Region Name="cell 53"></Region>
<Region Name="cell 54"></Region>
<Region Name="cell 55"></Region>
<Region Name="cell 56"></Region>
<Region Name="cell 57"></Region>
<Region Name="cell 58"></Region>
<Region Name="cell 59"></Region>
<Region Name="cell 60"></Region>
<Region Name="cell 61"></Region>
<Region Name="cell 62"></Region>
<Region Name="cell 63"></Region>
<Region Name="cell 64"></Region>
<Region Name="cell 65"></Region>
<Region Name="cell 66"></Region>
<Region Name="cell 67"></Region>
<Region Name="cell 68"></Region>
<Region Name="cell 69"></Region>
<Region Name="cell 70"></Region>
<Region Name="cell 71"></Region>
<Region Name="cell 72"></Region>
<Region Name="cell 73"></Region>
<Region Name="cell 74"></Region>
<Region Name="cell 75"></Region>
<Region Name="cell 76"></Region>
<Region Name="cell 77"></Region>
<Region Name="cell 78"></Region>
<Region Name="cell 79"></Region>
<Region Name="cell 80"></Region>
<Region Name="cell 81"></Region>
<Region Name="cell 82"></Region>
<Region Name="cell 83"></Region>
<Region Name="cell 84"></Region>
<Region Name="cell 85"></Region>
<Region Name="cell 86"></Region>
<Region Name="cell 87"></Region>
<Region Name="cell 88"></Region>
<Region Name="cell 89"></Region>
<Region Name="cell 90"></Region>
<Region Name="cell 91"></Region>
<Region Name="cell 92"></Region>
<Region Name="cell 93"></Region>
<Region Name="cell 94"></Region>
<Region Name="cell 95"></Region>
<Region Name="cell 96"></Region>
<Region Name="cell 97"></Region>
<Region Name="cell 98"></Region>
<Region Name="cell 99"></Region>
<Region Name="cell 100"></Region>
<Region Name="cell 101"></Region>
<Region Name="cell 102"></Region>
<Region Name="cell 103"></Region>
<Region Name="cell 104"></Region>
<Region Name="cell 105"></Region>
<Region Name="cell 106"></Region>
<Region Name="cell 107"></Region>
<Region Name="cell 108"></Region>
<Region Name="cell 109"></Region>
<Region Name="cell 110"></Region>
<Region Name="cell 111"></Region>
<Region Name="cell 112"></Region>
<Region Name="cell 113"></Region>
<Region Name="cell 114"></Region>
<Region Name="cell 115"></Region>
<Region Name="cell 116"></Region>
<Region Name="cell 117"></Region>
<Region Name="cell 118"></Region>
<Region Name="cell 119"></Region>
<Region Name="cell 120"></Region>
<Region Name="cell 121"></Region>
<Region Name="cell 122"></Region>
<Region Name="cell 123"></Region>
<Region Name="cell 124"></Region>
<Region Name="cell 125"></Region>
<Region Name="cell 126"></Region>
<Region Name="cell 127"></Region>
<Region Name="cell 128"></Region>
<Region Name="cell 129"></Region>
<Region Name="cell 130"></Region>
<Region Name="cell 131"></Region>
<Region Name="cell 132"></Region>
<Region Name="cell 133"></Region>
<Region Name="cell 134"></Region>
<Region Name="cell 135"></Region>
<Region Name="cell 136"></Region>
<Region Name="cell 137"></Region>
<Region Name="cell 138"></Region>
<Region Name="cell 139"></Region>
<Region Name="cell 140"></Region>
<Region Name="cell 141"></Region>
<Region Name="cell 142"></Region>
<Region Name="cell 143"></Region>
<Region Name="cell 144"></Region>
<Region Name="cell 145"></Region>
<Region Name="cell 146"></Region>
<Region Name="cell 147"></Region>
<Region Name="cell 148"></Region>
<Region Name="cell 149"></Region>
<Region Name="cell 150"></Region>
<Region Name="cell 151"></Region>
<Region Name="cell 152"></Region>
<Region Name="cell 153"></Region>
<Region Name="cell 154"></Region>
<Region Name="cell 155"></Region>
<Region Name="cell 156"></Region>
<Region Name="cell 157"></Region>
<Region Name="cell 158"></Region>
<Region Name="cell 159"></Region>
<Region Name="cell 160"></Region>
<Region Name="cell 161"></Region>
<Region Name="cell 162"></Region>
<Region Name="cell 163"></Region>
<Region Name="cell 164"></Region>
<Region Name="cell 165"></Region>
<Region Name="cell 166"></Region>
<Region Name="cell 167"></Region>
<Region Name="cell 168"></Region>
<Region Name="cell 169"></Region>
<Region Name="cell 170"></Region>
<Region Name="cell 171"></Region>
<Region Name="cell 172"></Region>
<Region Name="cell 173"></Region>
<Region Name="cell 174"></Region>
<Region Name="cell 175"></Region>
<Region Name="cell 176"></Region>
<Region Name="cell 177"></Region>
<Region Name="cell 178"></Region>
<Region Name="cell 179"></Region>
<Region Name="cell 180"></Region>
<Region Name="cell 181"></Region>
<Region Name="cell 182"></Region>
<Region Name="cell 183"></Region>
<Region Name="cell 184"></Region>
<Region Name="cell 185"></Region>
<Region Name="cell 186"></Region>
<Region Name="cell 187"></Region>
<Region Name="cell 188"></Region>
<Region Name="cell 189"></Region>
<Region Name="cell 190"></Region>
<Region Name="cell 191"></Region>
<Region Name="cell 192"></Region>
<Region Name="cell 193"></Region>
<Region Name="cell 194"></Region>
<Region Name="cell 195"></Region>
<Region Name="cell 196"></Region>
<Region Name="cell 197"></Region>
<Region Name="cell 198"></Region>
<Region Name="cell 199"></Region>
<Region Name="cell 200"></Region>
<Region Name="cell 201"></Region>
<Region Name="cell 202"></Region>
<Region Name="cell 203"></Region>
<Region Name="cell 204"></Region>
<Region Name="cell 205"></Region>
<Region Name="cell 206"></Region>
<Region Name="cell 207"></Region>
<Region Name="cell 208"></Region>
<Region Name="cell 209"></Region>
<Region Name="cell 210"></Region>
<Region Name="cell 211"></Region>
<Region Name="cell 212"></Region>
<Region Name="cell 213"></Region>
<Region Name="cell 214"></Region>
<Region Name="cell 215"></Region>
<Region Name="cell 216"></Region>
<Region Name="cell 217"></Region>
<Region Name="cell 218"></Region>
<Region Name="cell 219"></Region>
<Region Name="cell 220"></Region>
<Region Name="cell 221"></Region>
<Region Name="cell 222"></Region>
<Region Name="cell 223"></Region>
<Region Name="cell 224"></Region>
<Region Name="cell 225"></Region>
<Region Name="cell 226"></Region>
<Region Name="cell 227"></Region>
<Region Name="cell 228"></Region>
<Region Name="cell 229"></Region>
<Region Name="cell 230"></Region>
<Region Name="cell 231"></Region>
<Region Name="cell 232"></Region>
<Region Name="cell 233"></Region>
<Region Name="cell 234"></Region>
<Region Name="cell 235"></Region>
<Region Name="cell 236"></Region>
<Region Name="cell 237"></Region>
<Region Name="cell 238"></Region>
<Region Name="cell 239"></Region>
<Region Name="cell 240"></Region>
<Region Name="cell 241"></Region>
<Region Name="cell 242"></Region>
<Region Name="cell 243"></Region>
<Region Name="cell 244"></Region>
<Region Name="cell 245"></Region>
<Region Name="cell 246"></Region>
<Region Name="cell 247"></Region>
<Region Name="cell 248"></Region>
<Region Name="cell 249"></Region>
<Region Name="cell 250"></Region>
<Region Name="cell 251"></Region>
<Region Name="cell 252"></Region>
<Region Name="cell 253"></Region>
<Region Name="cell 254"></Region>
<Region Name="cell 255"></Region>
<Region Name="cell 256"></Region>
<Region Name="cell 257"></Region>
<Region Name="cell 258"></Region>
<Region Name="cell 259"></Region>
<Region Name="cell 260"></Region>
<Region Name="cell 261"></Region>
<Region Name="cell 262"></Region>
<Region Name="cell 263"></Region>
<Region Name="cell 264"></Region>
<Region Name="cell 265"></Region>
<Region Name="cell 266"></Region>
<Region Name="cell 267"></Region>
<Region Name="cell 268"></Region>
<Region Name="cell 269"></Region>
<Region Name="cell 270"></Region>
<Region Name="cell 271"></Region>
<Region Name="cell 272"></Region>
<Region Name="cell 273"></Region>
<Region Name="cell 274"></Region>
<Region Name="cell 275"></Region>
<Region Name="cell 276"></Region>
<Region Name="cell 277"></Region>
<Region Name="cell 278"></Region>
<Region Name="cell 279"></Region>
<Region Name="cell 280"></Region>
<Region Name="cell 281"></Region>
<Region Name="cell 282"></Region>
<Region Name="cell 283"></Region>
<Region Name="cell 284"></Region>
<Region Name="cell 285"></Region>
<Region Name="cell 286"></Region>
<Region Name="cell 287"></Region>
<Region Name="cell 288"></Region>
<Region Name="cell 289"></Region>
<Region Name="cell 290"></Region>
<Region Name="cell 291"></Region>
<Region Name="cell 292"></Region>
<Region Name="cell 293"></Region>
<Region Name="cell 294"></Region>
<Region Name="cell 295"></Region>
<Region Name="cell 296"></Region>
<Region Name="cell 297"></Region>
<Region Name="cell 298"></Region>
<Region Name="cell 299"></Region>
<Region Name="cell 300"></Region>
<Region Name="cell 301"></Region>
<Region Name="cell 302"></Region>
<Region Name="cell 303"></Region>
<Region Name="cell 304"></Region>
<Region Name="cell 305"></Region>
<Region Name="cell 306"></Region>
<Region Name="cell 307"></Region>
<Region Name="cell 308"></Region>
<Region Name="cell 309"></Region>
<Region Name="cell 310"></Region>
<Region Name="cell 311"></Region>
<Region Name="cell 312"></Region>
<Region Name="cell 313"></Region>
<Region Name="cell 314"></Region>
<Region Name="cell 315"></Region>
<Region Name="cell 316"></Region>
<Region Name="cell 317"></Region>
<Region Name="cell 318"></Region>
<Region Name="cell 319"></Region>
<Region Name="cell 320"></Region>
<Region Name="cell 321"></Region>
<Region Name="cell 322"></Region>
<Region Name="cell 323"></Region>
<Region Name="cell 324"></Region>
<Region Name="cell 325"></Region>
<Region Name="cell 326"></Region>
<Region Name="cell 327"></Region>
<Region Name="cell 328"></Region>
<Region Name="cell 329"></Region>
<Region Name="cell 330"></Region>
<Region Name="cell 331"></Region>
<Region Name="cell 332"></Region>
<Region Name="cell 333"></Region>
<Region Name="cell 334"></Region>
<Region Name="cell 335"></Region>
<Region Name="cell 336"></Region>
<Region Name="cell 337"></Region>
<Region Name="cell 338"></Region>
<Region Name="cell 339"></Region>
<Region Name="cell 340"></Region>
<Region Name="cell 341"></Region>
<Region Name="cell 342"></Region>
<Region Name="cell 343"></Region>
<Region Name="cell 344"></Region>
<Region Name="cell 345"></Region>
<Region Name="cell 346"></Region>
<Region Name="cell 347"></Region>
<Region Name="cell 348"></Region>
<Region Name="cell 349"></Region>
<Region Name="cell 350"></Region>
<Region Name="cell 351"></Region>
<Region Name="cell 352"></Region>
<Region Name="cell 353"></Region>
<Region Name="cell 354"></Region>
<Region Name="cell 355"></Region>
<Region Name="cell 356"></Region>
<Region Name="cell 357"></Region>
<Region Name="cell 358"></Region>
<Region Name="cell 359"></Region>
<Region Name="cell 360"></Region>
<Region Name="cell 361"></Region>
<Region Name="cell 362"></Region>
<Region Name="cell 363"></Region>
<Region Name="cell 364"></Region>
<Region Name="cell 365"></Region>
<Region Name="cell 366"></Region>
<Region Name="cell 367"></Region>
<Region Name="cell 368"></Region>
<Region Name="cell 369"></Region>
<Region Name="cell 370"></Region>
<Region Name="cell 371"></Region>
<Region Name="cell 372"></Region>
<Region Name="cell 373"></Region>
<Region Name="cell 374"></Region>
<Region Name="cell 375"></Region>
<Region Name="cell 376"></Region>
<Region Name="cell 377"></Region>
<Region Name="cell 378"></Region>
<Region Name="cell 379"></Region>
<Region Name="cell 380"></Region>
<Region Name="cell 381"></Region>
<Region Name="cell 382"></Region>
<Region Name="cell 383"></Region>
<Region Name="cell 384"></Region>
<Region Name="cell 385"></Region>
<Region Name="cell 386"></Region>
<Region Name="cell 387"></Region>
<Region Name="cell 388"></Region>
<Region Name="cell 389"></Region>
<Region Name="cell 390"></Region>
<Region Name="cell 391"></Region>
<Region Name="cell 392"></Region>
<Region Name="cell 393"></Region>
<Region Name="cell 394"></Region>
<Region Name="cell 395"></Region>
<Region Name="cell 396"></Region>
<Region Name="cell 397"></Region>
<Region Name="cell 398"></Region>
<Region Name="cell 399"></Region>
<Region Name="cell 400"></Region>
<Region Name="cell 401"></Region>
<Region Name="cell 402"></Region>
<Region Name="cell 403"></Region>
<Region Name="cell 404"></Region>
<Region Name="cell 405"></Region>
<Region Name="cell 406"></Region>
<Region Name="cell 407"></Region>
<Region Name="cell 408"></Region>
<Region Name="cell 409"></Region>
<Region Name="cell 410"></Region>
<Region Name="cell 411"></Region>
<Region Name="cell 412"></Region>
<Region Name="cell 413"></Region>
<Region Name="cell 414"></Region>
<Region Name="cell 415"></Region>
<Region Name="cell 416"></Region>
<Region Name="cell 417"></Region>
<Region Name="cell 418"></Region>
<Region Name="cell 419"></Region>
<Region Name="cell 420"></Region>
<Region Name="cell 421"></Region>
<Region Name="cell 422"></Region>
<Region Name="cell 423"></Region>
<Region Name="cell 424"></Region>
<Region Name="cell 425"></Region>
<Region Name="cell 426"></Region>
<Region Name="cell 427"></Region>
<Region Name="cell 428"></Region>
<Region Name="cell 429"></Region>
<Region Name="cell 430"></Region>
<Region Name="cell 431"></Region>
<Region Name="cell 432"></Region>
<Region Name="cell 433"></Region>
<Region Name="cell 434"></Region>
<Region Name="cell 435"></Region>
<Region Name="cell 436"></Region>
<Region Name="cell 437"></Region>
<Region Name="cell 438"></Region>
<Region Name="cell 439"></Region>
<Region Name="cell 440"></Region>
<Region Name="cell 441"></Region>
<Region Name="cell 442"></Region>
<Region Name="cell 443"></Region>
<Region Name="cell 444"></Region>
<Region Name="cell 445"></Region>
<Region Name="cell 446"></Region>
<Region Name="cell 447"></Region>
<Region Name="cell 448"></Region>
<Region Name="cell 449"></Region>
<Region Name="cell 450"></Region>
<Region Name="cell 451"></Region>
<Region Name="cell 452"></Region>
<Region Name="cell 453"></Region>
<Region Name="cell 454"></Region>
<Region Name="cell 455"></Region>
<Region Name="cell 456"></Region>
<Region Name="cell 457"></Region>
<Region Name="cell 458"></Region>
<Region Name="cell 459"></Region>
<Region Name="cell 460"></Region>
<Region Name="cell 461"></Region>
<Region Name="cell 462"></Region>
<Region Name="cell 463"></Region>
<Region Name="cell 464"></Region>
<Region Name="cell 465"></Region>
<Region Name="cell 466"></Region>
<Region Name="cell 467"></Region>
<Region Name="cell 468"></Region>
<Region Name="cell 469"></Region>
<Region Name="cell 470"></Region>
<Region Name="cell 471"></Region>
<Region Name="cell 472"></Region>
<Region Name="cell 473"></Region>
<Region Name="cell 474"></Region>
<Region Name="cell 475"></Region>
<Region Name="cell 476"></Region>
<Region Name="cell 477"></Region>
<Region Name="cell 478"></Region>
<Region Name="cell 479"></Region>
<Region Name="cell 480"></Region>
</RegionInfo>
</Piece></UnstructuredGrid> 