<VTKFile type="UnstructuredGrid" version="0.1" byte_order="LittleEndian"> 
<UnstructuredGrid> 
<Piece NumberOfPoints="633" NumberOfCells="1113">
<Points>
<DataArray type="Float32" NumberOfComponents="3" format="ascii">
-28.0259964427 43.6165672259 -11.6870239648 
-21.4706917808 7.91032962877 29.5217520797 
-16.2120284735 -25.568930865 6.85117437663 
-23.5810883437 -9.4523437251 -35.2766270333 
2.91156302699e-10 47.6235163041 5.00543326182 
2.41260903528e-10 5.9766801385 33.9023575195 
2.47355755975e-10 -35.9859885349 -3.78227980525 
2.72022725145e-10 16.0846779257 -39.8109748757 
30.254465555 26.6474233233 17.9739139835 
28.5166785918 8.39643495255 27.4652157069 
28.6632265216 -24.0553687712 -16.225551112 
28.840250784 29.259842157 -2.55990448529 
53.7571885321 0.0 0.0 
-22.2297474103 31.648628383 -8.4802244168 
-22.9708560555 3.53310435228 13.1857249514 
-15.3893472265 -23.7396453916 6.36101881131 
-33.1517660187 -7.46447153722 -27.8577870291 
-24.2858152553 13.4766126749 -3.61104748295 
2.5771302873e-10 38.8688097837 4.08527652802 
2.17077458635e-10 4.6675894962 26.476619827 
2.17399317233e-10 -26.8452787611 -2.82155249469 
2.46924174635e-10 13.5087101424 -33.4352308804 
2.02942431331e-10 21.6792426606 2.27858022099 
26.9676277759 21.128881795 14.2516107221 
26.0280673482 6.84373435672 22.3862438535 
24.6757129483 -16.7483203773 -11.2968847373 
26.2921558066 23.9120388409 -2.09203232037 
47.2185947508 0.0 0.0 
-22.4147992332 9.27800910362 -2.48603504669 
-18.8365346529 2.9794921821 11.1196162046 
-14.2787307018 -20.3033165184 5.44025726479 
-18.8591070698 -3.00805060958 -11.2261977069 
1.74476847693e-10 5.17725924541 0.544151873763 
1.8118892927e-10 1.953956313 11.0836993056 
1.97089538785e-10 -19.3236961472 -2.03100230607 
1.89963598352e-10 6.06927880751 -15.0219921863 
21.7780451422 9.58172907633 6.46295786806 
22.4433418112 4.06767939274 13.3056103667 
22.4767919068 -11.6257544423 -7.84167038608 
22.5500696672 14.2068532995 -1.24293860808 
42.5761747245 0.0 0.0 
29.6651238258 18.440675734 24.9211429579 
2.68755231803e-10 30.767977631 28.6926072987 
-24.0797408596 31.6706467472 18.2850564249 
26.9665570935 -20.4852677163 15.1583007217 
2.32627347889e-10 -21.7219585595 23.2939486797 
-17.4759507637 -11.9414991212 20.6832831966 
29.0594596319 7.46358570655 -28.8595445869 
2.56848750594e-10 -20.0065979871 -33.2965705419 
-19.803783532 -27.7858710716 -16.0421801429 
29.6468997289 29.9801719586 7.75284140359 
2.89336218463e-10 40.6498698565 -24.4249059654 
-28.1235832298 23.380507258 -40.4962264779 
26.8357787566 -7.89190956924 23.932968839 
2.29543902206e-10 -8.77701715944 29.6307133498 
-20.0274301739 -3.83336215811 29.117276379 
28.8598017127 22.4472408869 -19.0029921264 
2.64602399948e-10 -3.21352467654 -40.8317024622 
-20.7904455887 -19.3376888586 -25.2013667728 
22.255202521 7.90091944166 10.6774798139 
1.74293719183e-10 3.61530499689 3.37132645059 
-20.0114230475 6.12723207957 3.53755909053 
20.4012068532 -3.12691191517 2.31379310228 
1.89097773221e-10 -10.757602742 11.5361165754 
-17.2560389681 -9.33793769944 16.1737825335 
23.3319810278 4.16378174787 -16.1001494091 
1.97668754701e-10 -10.1328633709 -16.8639166058 
-17.740612973 -17.8908940777 -10.3293125118 
21.4744214687 10.0049651556 2.58745992012 
1.75762737432e-10 5.80624641205 -3.48874481338 
-20.5876940249 5.08580761944 -8.80887719446 
20.6012641383 -1.76769222615 5.36069535443 
1.90113080676e-10 -4.62226564325 15.604507296 
-18.0423401362 -1.95185169521 14.8257855418 
21.9156453843 9.21718182215 -7.80292038904 
1.98878542854e-10 -1.58299896545 -20.1139089509 
-18.5158744464 -10.3219860738 -13.4518741496 
26.4351182462 14.4669999469 19.551028338 
2.38091669668e-10 24.4942685243 22.8420741936 
-22.5690551784 19.324009254 11.1567219446 
26.4208222715 23.5162432138 6.08127612798 
2.60148741893e-10 34.0726101289 -20.472889614 
-29.7835356799 17.5314082211 -30.3652897675 
2.07814952303e-10 17.2859190578 16.1199443549 
-23.8381099903 12.4958671963 7.21449228954 
2.33093138077e-10 27.4226431198 -16.4771863204 
-29.0621338996 11.5925540898 -20.0788926731 
23.1105692374 -5.00649679511 15.1826792665 
2.05225536271e-10 -6.43937498194 21.7389656162 
-18.7740193905 -2.80912429722 21.3374174345 
22.9672126127 -12.5078170774 9.25529777091 
2.08909707336e-10 -16.3918554602 17.5781128948 
-17.3004245374 -10.5122449786 18.2077424047 
25.3873892732 5.49008861587 -21.2285975435 
2.2556610001e-10 -15.2742510488 -25.420622629 
-18.4607659308 -22.0201993275 -12.7133680094 
25.7213150002 17.3306448842 -14.6714738768 
2.32286356163e-10 -2.49080085036 -31.6486255597 
-19.1902021958 -13.9993520902 -18.2443108474 
2.63556274171e-10 39.7114986301 -8.80382729183 
-12.1780990581 39.9114067425 -3.14109583241 
-14.0644605203 37.2771304411 -17.3826113987 
2.73587079306e-10 43.1125980662 4.53131665008 
2.79501888119e-10 43.8320055634 -9.71732168634 
-13.1391087981 43.8681065596 -3.4524948614 
-14.1924454661 40.9455303536 -19.0932143711 
2.97068964932e-10 48.2067933171 -10.6871887815 
-14.2001699024 48.0554981151 -3.78204972397 
-14.3130605052 44.8374069565 -20.9080262357 
-25.3849627092 25.9737148029 -19.9303323463 
-24.8842497565 37.3582200912 -10.0101049041 
-26.9388104068 31.4713330709 -24.148803213 
-28.7147144931 37.6707334717 -28.9057704498 
-15.5579106363 28.1787727711 -28.6749274967 
2.74099438965e-10 37.273795135 -22.3963556183 
-14.9778749874 31.4953648211 -32.0499160862 
-14.2774578294 35.0399850176 -35.6569478035 
-29.0907324675 20.3348471115 -35.2209883616 
2.52383219677e-10 24.4220394554 -28.5945343 
-16.4713508142 15.0788759344 -33.867709858 
2.64729962891e-10 26.6223868316 -31.1708100708 
-15.2333790824 17.2095678075 -38.653322159 
2.78167694262e-10 28.9324486823 -33.8755449864 
-13.7470699317 19.4960140708 -43.788764548 
-33.2034597464 4.54141337263 -34.4954593039 
-29.9356618439 5.06223118339 -38.4514633321 
-26.2090368938 5.57619618139 -42.3554150795 
-16.9355305566 1.99492341977 -32.6167096015 
2.58926695606e-10 14.7655149063 -36.5459318288 
-14.9890211637 2.29905890191 -37.58928078 
-12.69721065 2.62228715846 -42.8740160608 
-28.6821150931 -8.49268881492 -31.6951461507 
2.37892703267e-10 5.08597339306 -33.0440997338 
-13.4283899087 -4.57545376497 -29.7272004498 
2.52171222393e-10 5.71146277893 -37.1079695286 
-12.6828875757 -5.27816873308 -34.292812909 
2.68155112558e-10 6.37557736206 -41.4227912596 
-11.8159939685 -6.03157561013 -39.1877759891 
-25.058226668 -10.9133061388 -22.1299956621 
-23.4733665119 -12.6243080602 -25.5995643352 
-21.6297881302 -14.435943273 -29.2731971364 
-10.5690822788 -10.7222370325 -27.9323824427 
2.47418670178e-10 -2.84038754905 -36.0905457261 
-10.8946479719 -12.137891013 -31.6202871469 
-11.2614874433 -13.6413641429 -35.5369685567 
-19.9236039868 -16.5707607235 -21.5954358223 
2.29638461684e-10 -9.43024737031 -29.4600844174 
-10.1199600547 -16.1532244097 -24.6377617285 
2.44391649306e-10 -10.7721318638 -33.6521303843 
-10.4322482321 -18.1217835414 -27.6403133927 
2.61169895682e-10 -12.2032755443 -38.1230219724 
-10.7819220285 -20.2002384488 -30.8104839712 
-18.7402262388 -17.9499491996 -15.74168296 
-19.3818867441 -20.6773519959 -18.1335510175 
-20.1206187395 -23.578402451 -20.6777039846 
-9.65773361042 -20.5866827776 -20.2304768222 
2.40156120685e-10 -17.5635385775 -29.2306368923 
-10.0233379088 -23.2035661066 -22.8020809076 
-10.4346170778 -25.9688778786 -25.5195452177 
-19.0928334551 -24.825254933 -14.3328676183 
2.21955173692e-10 -24.0346306035 -15.311748387 
-8.84347249554 -26.6374899964 -9.69525347428 
2.35613368775e-10 -27.6236872581 -17.598229646 
-9.26784167567 -29.8996743672 -10.882591484 
2.51230132164e-10 -31.4423695857 -20.0309985925 
-9.74267703628 -33.3338727958 -12.1325374905 
-17.2562241013 -26.1310438371 -3.44021718574 
-17.7394096629 -28.1307083727 -3.70347801619 
-18.259012908 -30.1945557403 -3.97518867677 
-7.95456465042 -26.9691852659 2.12252091209 
2.31285452715e-10 -31.2679924092 -3.28639843048 
-8.51039752901 -30.8637972304 2.42903352113 
-9.14187794995 -34.9870278527 2.75353880873 
-15.7937511396 -24.6491647039 6.60472377652 
2.12941939812e-10 -23.8553206806 8.91913892669 
-8.49179923653 -22.25906637 12.3384019658 
2.25755446536e-10 -27.834691277 10.4069646267 
-8.95635079793 -25.7450895387 14.2707361618 
2.40604057162e-10 -32.064981573 11.9886053581 
-9.49095015076 -29.441576029 16.3197320819 
-16.1435687941 -17.2975093422 13.2728457432 
-16.351998482 -18.1642728058 13.937936741 
-16.5713051136 -19.0454136078 14.6140598586 
-9.0447194846 -14.3829831111 19.437486101 
2.19937754167e-10 -18.9851940149 20.3591280154 
-9.31079184197 -16.2912144588 22.0163127611 
-9.61461841674 -18.2914563629 24.7194845517 
-17.3831766061 -11.2183701018 19.4307869946 
2.0662299199e-10 -11.5102168261 20.1387026206 
-9.30950696314 -9.65431896089 21.4317933769 
2.16849691268e-10 -13.3026349759 23.2747839506 
-9.50922456298 -10.921283695 24.2443507936 
2.28592218204e-10 -15.1880415082 26.5735612061 
-9.74008989792 -12.2470459991 27.1874339757 
-18.0684655 -6.88085039667 20.2703316193 
-18.295856946 -7.62155809859 22.4523861454 
-18.555024316 -8.39203415059 24.7221354028 
-9.59034850442 -4.78109350588 22.4932764644 
2.16448717344e-10 -7.57543716306 25.5742472643 
-9.85753109903 -5.59730102639 26.3332309411 
-10.1774289433 -6.46259805317 30.404133387 
-19.3471588757 -3.30443234778 25.0996555967 
2.09133478972e-10 -1.36762712207 24.0772535799 
-11.3744546828 0.0994313824289 22.8335172463 
2.20529755376e-10 -1.58971500809 27.9871397342 
-11.0284939554 0.119747061119 27.4988290263 
2.33686593208e-10 -1.82449411087 32.1204564122 
-10.6549740094 0.141595329114 32.516086072 
-21.0095984878 1.14153632509 17.4164787173 
-20.9540745167 1.5475734384 23.6114079428 
-20.9756153132 2.00673865192 30.6169153394 
[...]
<CellData>
<DataArray type="Int32" Name="regions" NumberOfComponents="1" format="ascii">
0 0 0 0 0 0 0 0 0 0 0 0 0 0 0 0 0 0 0 0 0 0 0 0 0 0 0 0 0 0 0 0 0 0 0 0 0 0 0 0 0 0 0 0 0 0 0 0 0 0 0 0 0 0 0 0 0 0 0 0 0 0 0 0 0 0 0 0 0 0 0 0 0 0 0 0 0 0 0 0 0 0 0 0 0 0 0 0 0 0 0 0 0 0 0 0 0 0 0 0 0 0 0 0 0 0 0 0 0 0 0 0 0 0 0 0 0 0 0 0 0 0 0 0 0 0 0 0 0 0 0 0 0 0 0 0 0 0 0 0 0 0 0 0 0 0 0 0 0 0 0 0 0 0 0 0 0 0 0 0 0 0 0 0 0 0 0 0 0 0 0 0 0 0 0 0 0 0 0 0 0 0 0 0 0 0 0 0 0 0 0 0 0 0 0 0 0 0 0 0 0 0 0 0 0 0 0 0 0 0 0 0 0 0 0 0 0 0 0 0 0 0 0 0 0 0 0 0 0 0 0 0 0 0 0 0 0 0 0 0 0 0 0 0 0 0 0 0 0 0 0 0 0 0 0 0 0 0 0 0 0 0 0 0 0 0 0 0 0 0 0 0 0 0 0 0 0 0 0 0 0 0 0 0 0 0 0 0 0 0 0 0 0 0 0 0 0 0 0 0 0 0 0 0 0 0 0 0 0 0 0 0 0 0 0 0 0 0 0 0 0 0 0 0 0 0 0 0 0 0 0 0 0 0 0 0 0 0 0 0 0 0 0 0 0 0 0 0 0 0 0 0 0 0 0 0 0 0 0 0 0 0 0 0 0 0 0 0 0 0 0 0 0 0 0 0 0 0 0 0 0 0 0 0 0 0 0 0 0 0 0 0 0 0 0 0 0 0 0 0 0 0 0 0 0 0 0 0 0 0 0 0 0 0 0 0 0 0 0 0 0 0 0 0 0 0 0 0 0 0 0 0 0 0 0 0 0 0 0 0 0 0 0 0 0 0 0 0 0 0 0 0 0 0 0 0 0 0 0 0 0 0 0 0 0 0 0 0 0 0 0 0 0 0 0 0 0 0 0 0 0 0 0 0 0 0 0 0 0 0 0 0 0 0 0 0 0 0 0 0 0 0 0 0 0 0 0 0 0 0 0 0 0 0 0 0 0 0 0 0 0 0 0 0 0 0 0 0 0 0 0 0 0 0 0 0 0 0 0 0 0 0 0 0 0 0 0 0 0 0 0 0 0 0 0 0 0 0 0 0 0 0 0 0 0 0 0 0 0 0 0 0 0 0 0 0 0 0 0 0 0 0 0 0 0 0 0 0 0 0 0 0 0 0 0 0 0 0 0 0 0 0 0 0 0 0 0 0 0 0 0 0 0 0 0 0 0 0 0 0 0 0 0 0 0 0 0 0 0 0 0 0 0 0 
0 
0 
0 
0 
0 
0 
0 
0 
0 
0 
0 
0 
0 
0 
0 
0 
0 
0 
0 
0 
0 
0 
0 
0 
0 
0 
0 
0 
0 
0 
0 
0 
0 
0 
0 
0 
0 
0 
0 
0 
0 
0 
0 
0 
0 
0 
0 
0 
0 
0 
0 
0 
0 
0 
0 
0 
0 
0 
0 
0 
0 
0 
0 
0 
0 
0 
0 
0 
0 
0 
0 
0 
0 
0 
0 
0 
0 
0 
0 
0 
0 
0 
0 
0 
0 
0 
0 
0 
0 
0 
0 
0 
0 
0 
0 
0 
0 
0 
0 
0 
0 
0 
0 
0 
0 
0 
0 
0 
0 
0 
0 
0 
0 
0 
0 
0 
0 
0 
0 
0 
0 
0 
0 
0 
0 
0 
0 
0 
0 
0 
0 
0 
0 
0 
0 
0 
0 
0 
0 
0 
0 
0 
0 
0 
0 
0 
0 
0 
0 
0 
0 
0 
0 
0 
0 
0 
0 
0 
0 
0 
0 
0 
0 
0 
0 
0 
0 
0 
0 
0 
0 
0 
0 
0 
0 
0 
0 
0 
0 
0 
0 
0 
0 
0 
0 
0 
0 
0 
0 
0 
0 
0 
0 
0 
0 
0 
0 
0 
0 
0 
0 
0 
0 
0 
0 
0 
0 
0 
0 
0 
0 
0 
0 
0 
0 
0 
0 
0 
0 
0 
0 
0 
0 
0 
0 
0 
0 
0 
0 
0 
0 
0 
0 
0 
0 
0 
0 
0 
0 
0 
0 
0 
0 
0 
0 
0 
0 
0 
0 
0 
0 
0 
0 
0 
0 
0 
0 
0 
0 
0 
0 
0 
0 
0 
0 
0 
0 
0 
0 
0 
0 
0 
0 
0 
0 
0 
0 
0 
0 
0 
0 
0 
0 
0 
0 
0 
0 
0 
0 
0 
0 
0 
0 
0 
0 
0 
0 
0 
0 
0 
0 
0 
0 
0 
0 
0 
0 
0 
0 
0 
0 
0 
0 
0 
0 
0 
0 
0 
0 
0 
0 
0 
0 
0 
0 
0 
0 
0 
0 
0 
0 
0 
0 
0 
0 
0 
0 
0 
0 
0 
0 
0 
0 
0 
0 
0 
0 
0 
0 
0 
0 
0 
0 
0 
0 
0 
0 
0 
0 
0 
0 
0 
0 
0 
0 
0 
0 
0 
0 
0 
0 
0 
0 
0 
0 
0 
0 
0 
0 
0 
0 
0 
0 
0 
0 
0 
0 
0 
0 
0 
0 
0 
0 
0 
0 
0 
0 
0 
0 
0 
0 
0 
0 
0 
0 
0 
0 
0 
0 
0 
0 
0 
0 
0 
0 
0 
0 
0 
0 
0 
0 
0 
0 
0 
0 
0 
0 
0 
0 
0 
0 
0 
0 
0 
0 
0 
0 
0 
0 
0 
0 
0 
0 
0 
0 
0 
0 
0 
0 
0 
0 
0 
0 
0 
0 
0 
0 
0 
0 
0 
0 
0 
0 
0 
0 
0 
0 
0 
0 
0 
0 
0 
0 
0 
0 
0 
0 
0 
0 
</DataArray>
</CellData>
<RegionInfo Name="regions">
<Region Name="subset"></Region>
</RegionInfo>
</Piece></UnstructuredGrid> 
</VTKFile>