<VTKFile type="UnstructuredGrid" version="0.1" byte_order="LittleEndian"> 
<UnstructuredGrid> 
<Piece NumberOfPoints="99" NumberOfCells="159">
<Points>
<DataArray type="Float32" NumberOfComponents="3" format="ascii">
-28.0259964427 43.6165672259 -11.6870239648 
-21.4706917808 7.91032962877 29.5217520797 
-16.2120284735 -25.568930865 6.85117437663 
-23.5810883437 -9.4523437251 -35.2766270333 
2.91156302699e-10 47.6235163041 5.00543326182 
2.41260903528e-10 5.9766801385 33.9023575195 
2.47355755975e-10 -35.9859885349 -3.78227980525 
2.72022725145e-10 16.0846779257 -39.8109748757 
30.254465555 26.6474233233 17.9739139835 
28.5166785918 8.39643495255 27.4652157069 
28.6632265216 -24.0553687712 -16.225551112 
28.840250784 29.259842157 -2.55990448529 
53.7571885321 0.0 0.0 
-22.2297474103 31.648628383 -8.4802244168 
-22.9708560555 3.53310435228 13.1857249514 
-15.3893472265 -23.7396453916 6.36101881131 
-33.1517660187 -7.46447153722 -27.8577870291 
-24.2858152553 13.4766126749 -3.61104748295 
2.5771302873e-10 38.8688097837 4.08527652802 
2.17077458635e-10 4.6675894962 26.476619827 
2.17399317233e-10 -26.8452787611 -2.82155249469 
2.46924174635e-10 13.5087101424 -33.4352308804 
2.02942431331e-10 21.6792426606 2.27858022099 
26.9676277759 21.128881795 14.2516107221 
26.0280673482 6.84373435672 22.3862438535 
24.6757129483 -16.7483203773 -11.2968847373 
26.2921558066 23.9120388409 -2.09203232037 
47.2185947508 0.0 0.0 
-22.4147992332 9.27800910362 -2.48603504669 
-18.8365346529 2.9794921821 11.1196162046 
-14.2787307018 -20.3033165184 5.44025726479 
-18.8591070698 -3.00805060958 -11.2261977069 
1.74476847693e-10 5.17725924541 0.544151873763 
1.8118892927e-10 1.953956313 11.0836993056 
1.97089538785e-10 -19.3236961472 -2.03100230607 
1.89963598352e-10 6.06927880751 -15.0219921863 
21.7780451422 9.58172907633 6.46295786806 
22.4433418112 4.06767939274 13.3056103667 
22.4767919068 -11.6257544423 -7.84167038608 
22.5500696672 14.2068532995 -1.24293860808 
42.5761747245 0.0 0.0 
29.6651238258 18.440675734 24.9211429579 
2.68755231803e-10 30.767977631 28.6926072987 
-24.0797408596 31.6706467472 18.2850564249 
26.9665570935 -20.4852677163 15.1583007217 
2.32627347889e-10 -21.7219585595 23.2939486797 
-17.4759507637 -11.9414991212 20.6832831966 
29.0594596319 7.46358570655 -28.8595445869 
2.56848750594e-10 -20.0065979871 -33.2965705419 
-19.803783532 -27.7858710716 -16.0421801429 
29.6468997289 29.9801719586 7.75284140359 
2.89336218463e-10 40.6498698565 -24.4249059654 
-28.1235832298 23.380507258 -40.4962264779 
26.8357787566 -7.89190956924 23.932968839 
2.29543902206e-10 -8.77701715944 29.6307133498 
-20.0274301739 -3.83336215811 29.117276379 
28.8598017127 22.4472408869 -19.0029921264 
2.64602399948e-10 -3.21352467654 -40.8317024622 
-20.7904455887 -19.3376888586 -25.2013667728 
22.255202521 7.90091944166 10.6774798139 
1.74293719183e-10 3.61530499689 3.37132645059 
-20.0114230475 6.12723207957 3.53755909053 
20.4012068532 -3.12691191517 2.31379310228 
1.89097773221e-10 -10.757602742 11.5361165754 
-17.2560389681 -9.33793769944 16.1737825335 
23.3319810278 4.16378174787 -16.1001494091 
1.97668754701e-10 -10.1328633709 -16.8639166058 
-17.740612973 -17.8908940777 -10.3293125118 
21.4744214687 10.0049651556 2.58745992012 
1.75762737432e-10 5.80624641205 -3.48874481338 
-20.5876940249 5.08580761944 -8.80887719446 
20.6012641383 -1.76769222615 5.36069535443 
1.90113080676e-10 -4.62226564325 15.604507296 
-18.0423401362 -1.95185169521 14.8257855418 
21.9156453843 9.21718182215 -7.80292038904 
1.98878542854e-10 -1.58299896545 -20.1139089509 
-18.5158744464 -10.3219860738 -13.4518741496 
26.4351182462 14.4669999469 19.551028338 
2.38091669668e-10 24.4942685243 22.8420741936 
-22.5690551784 19.324009254 11.1567219446 
26.4208222715 23.5162432138 6.08127612798 
2.60148741893e-10 34.0726101289 -20.472889614 
-29.7835356799 17.5314082211 -30.3652897675 
2.07814952303e-10 17.2859190578 16.1199443549 
-23.8381099903 12.4958671963 7.21449228954 
2.33093138077e-10 27.4226431198 -16.4771863204 
-29.0621338996 11.5925540898 -20.0788926731 
23.1105692374 -5.00649679511 15.1826792665 
2.05225536271e-10 -6.43937498194 21.7389656162 
-18.7740193905 -2.80912429722 21.3374174345 
22.9672126127 -12.5078170774 9.25529777091 
2.08909707336e-10 -16.3918554602 17.5781128948 
-17.3004245374 -10.5122449786 18.2077424047 
25.3873892732 5.49008861587 -21.2285975435 
2.2556610001e-10 -15.2742510488 -25.420622629 
-18.4607659308 -22.0201993275 -12.7133680094 
25.7213150002 17.3306448842 -14.6714738768 
2.32286356163e-10 -2.49080085036 -31.6486255597 
-19.1902021958 -13.9993520902 -18.2443108474 
</DataArray>
</Points>
<Cells>
 <DataArray type="Int32" Name="connectivity" format="ascii">
0 1 2 3 4 5 6 7 8 9 10 11 12 13 14 15 16 17 18 19 20 21 22 23 24 25 26 27 28 29 30 31 32 33 34 35 36 37 38 39 40 41 42 43 44 45 46 47 48 49 50 51 52 53 54 55 56 57 58 59 60 61 62 63 64 65 66 67 68 69 70 71 72 73 74 75 76 77 78 79 80 81 82 83 84 85 86 87 88 89 90 91 92 93 94 95 96 97 98 18 4 51 81 13 0 52 82 
81 51 7 21 82 52 3 16 
21 7 57 97 16 3 58 98 
97 57 48 94 98 58 49 95 
94 48 6 20 95 49 2 15 
20 6 45 91 15 2 46 92 
91 45 54 88 92 46 55 89 
88 54 5 19 89 55 1 14 
19 5 42 78 14 1 43 79 
78 42 4 18 79 43 0 13 
23 8 50 80 18 4 51 81 
80 50 11 26 81 51 7 21 
26 11 56 96 21 7 57 97 
96 56 47 93 97 57 48 94 
93 47 10 25 94 48 6 20 
25 10 44 90 20 6 45 91 
90 44 53 87 91 45 54 88 
87 53 9 24 88 54 5 19 
24 9 41 77 19 5 42 78 
77 41 8 23 78 42 4 18 
27 23 80 12 8 50 
27 80 26 12 50 11 
27 26 96 12 11 56 
27 96 93 12 56 47 
27 93 25 12 47 10 
27 25 90 12 10 44 
27 90 87 12 44 53 
27 87 24 12 53 9 
27 24 77 12 9 41 
27 77 23 12 41 8 
32 22 85 69 28 17 86 70 
69 85 21 35 70 86 16 31 
35 21 97 75 31 16 98 76 
75 97 94 66 76 98 95 67 
66 94 20 34 67 95 15 30 
34 20 91 63 30 15 92 64 
63 91 88 72 64 92 89 73 
72 88 19 33 73 89 14 29 
33 19 83 60 29 14 84 61 
60 83 22 32 61 84 17 28 
36 23 80 68 32 22 85 69 
68 80 26 39 69 85 21 35 
39 26 96 74 35 21 97 75 
74 96 93 65 75 97 94 66 
65 93 25 38 66 94 20 34 
38 25 90 62 34 20 91 63 
62 90 87 71 63 91 88 72 
71 87 24 37 72 88 19 33 
37 24 77 59 33 19 83 60 
59 77 23 36 60 83 22 32 
40 36 68 27 23 80 
40 68 39 27 80 26 
40 39 74 27 26 96 
40 74 65 27 96 93 
40 65 38 27 93 25 
40 38 62 27 25 90 
40 62 71 27 90 87 
40 71 37 27 87 24 
40 37 59 27 24 77 
40 59 36 27 77 23 
</DataArray>
<DataArray type="Int32" Name="offsets" format="ascii">
1 2 3 4 5 6 7 8 9 10 11 12 13 14 15 16 17 18 19 20 21 22 23 24 25 26 27 28 29 30 31 32 33 34 35 36 37 38 39 40 41 42 43 44 45 46 47 48 49 50 51 52 53 54 55 56 57 58 59 60 61 62 63 64 65 66 67 68 69 70 71 72 73 74 75 76 77 78 79 80 81 82 83 84 85 86 87 88 89 90 91 92 93 94 95 96 97 98 99 107 115 123 131 139 147 155 163 171 179 187 195 203 211 219 227 235 243 251 259 265 271 277 283 289 295 301 307 313 319 327 335 343 351 359 367 375 383 391 399 407 415 423 431 439 447 455 463 471 479 485 491 497 503 509 515 521 527 533 539 </DataArray>
<DataArray type="Int8" Name="types" format="ascii">
1 1 1 1 1 1 1 1 1 1 1 1 1 1 1 1 1 1 1 1 1 1 1 1 1 1 1 1 1 1 1 1 1 1 1 1 1 1 1 1 1 1 1 1 1 1 1 1 1 1 1 1 1 1 1 1 1 1 1 1 1 1 1 1 1 1 1 1 1 1 1 1 1 1 1 1 1 1 1 1 1 1 1 1 1 1 1 1 1 1 1 1 1 1 1 1 1 1 1 12 12 12 12 12 12 12 12 12 12 12 12 12 12 12 12 12 12 12 12 13 13 13 13 13 13 13 13 13 13 12 12 12 12 12 12 12 12 12 12 12 12 12 12 12 12 12 12 12 12 13 13 13 13 13 13 13 13 13 13 </DataArray>
</Cells>
<PointData>
</PointData>
<CellData>
<DataArray type="Int32" Name="regions" NumberOfComponents="1" format="ascii">
0 0 0 0 0 0 0 0 0 0 0 0 0 0 0 0 0 0 0 0 0 0 0 0 0 0 0 0 0 0 0 0 0 0 0 0 0 0 0 0 0 0 0 0 0 0 0 0 0 0 0 0 0 0 0 0 0 0 0 0 0 0 0 0 0 0 0 0 0 0 0 0 0 0 0 0 0 0 0 0 0 0 0 0 0 0 0 0 0 0 0 0 0 0 0 0 0 0 0 1 
2 
3 
4 
5 
6 
7 
8 
9 
10 
11 
12 
13 
14 
15 
16 
17 
18 
19 
20 
21 
22 
23 
24 
25 
26 
27 
28 
29 
30 
31 
32 
33 
34 
35 
36 
37 
38 
39 
40 
41 
42 
43 
44 
45 
46 
47 
48 
49 
50 
51 
52 
53 
54 
55 
56 
57 
58 
59 
60 
</DataArray>
</CellData>
<RegionInfo Name="regions">
<Region Name="subset"></Region>
<Region Name="cell 1"></Region>
<Region Name="cell 2"></Region>
<Region Name="cell 3"></Region>
<Region Name="cell 4"></Region>
<Region Name="cell 5"></Region>
<Region Name="cell 6"></Region>
<Region Name="cell 7"></Region>
<Region Name="cell 8"></Region>
<Region Name="cell 9"></Region>
<Region Name="cell 10"></Region>
<Region Name="cell 11"></Region>
<Region Name="cell 12"></Region>
<Region Name="cell 13"></Region>
<Region Name="cell 14"></Region>
<Region Name="cell 15"></Region>
<Region Name="cell 16"></Region>
<Region Name="cell 17"></Region>
<Region Name="cell 18"></Region>
<Region Name="cell 19"></Region>
<Region Name="cell 20"></Region>
<Region Name="cell 21"></Region>
<Region Name="cell 22"></Region>
<Region Name="cell 23"></Region>
<Region Name="cell 24"></Region>
<Region Name="cell 25"></Region>
<Region Name="cell 26"></Region>
<Region Name="cell 27"></Region>
<Region Name="cell 28"></Region>
<Region Name="cell 29"></Region>
<Region Name="cell 30"></Region>
<Region Name="cell 31"></Region>
<Region Name="cell 32"></Region>
<Region Name="cell 33"></Region>
<Region Name="cell 34"></Region>
<Region Name="cell 35"></Region>
<Region Name="cell 36"></Region>
<Region Name="cell 37"></Region>
<Region Name="cell 38"></Region>
<Region Name="cell 39"></Region>
<Region Name="cell 40"></Region>
<Region Name="cell 41"></Region>
<Region Name="cell 42"></Region>
<Region Name="cell 43"></Region>
<Region Name="cell 44"></Region>
<Region Name="cell 45"></Region>
<Region Name="cell 46"></Region>
<Region Name="cell 47"></Region>
<Region Name="cell 48"></Region>
<Region Name="cell 49"></Region>
<Region Name="cell 50"></Region>
<Region Name="cell 51"></Region>
<Region Name="cell 52"></Region>
<Region Name="cell 53"></Region>
<Region Name="cell 54"></Region>
<Region Name="cell 55"></Region>
<Region Name="cell 56"></Region>
<Region Name="cell 57"></Region>
<Region Name="cell 58"></Region>
<Region Name="cell 59"></Region>
<Region Name="cell 60"></Region>
</RegionInfo>
</Piece></UnstructuredGrid> 
</VTKFile>