<VTKFile type="UnstructuredGrid" version="0.1" byte_order="LittleEndian"> 
<UnstructuredGrid> 
<Piece NumberOfPoints="163" NumberOfCells="283">
<Points>
<DataArray type="Float32" NumberOfComponents="3" format="ascii">
-28.0259964427 43.6165672259 -11.6870239648 
-21.4706917808 7.91032962877 29.5217520797 
-16.2120284735 -25.568930865 6.85117437663 
-23.5810883437 -9.4523437251 -35.2766270333 
2.91156302699e-10 47.6235163041 5.00543326182 
2.41260903528e-10 5.9766801385 33.9023575195 
2.47355755975e-10 -35.9859885349 -3.78227980525 
2.72022725145e-10 16.0846779257 -39.8109748757 
30.254465555 26.6474233233 17.9739139835 
28.5166785918 8.39643495255 27.4652157069 
28.6632265216 -24.0553687712 -16.225551112 
28.840250784 29.259842157 -2.55990448529 
53.7571885321 0.0 0.0 
-22.2297474103 31.648628383 -8.4802244168 
-22.9708560555 3.53310435228 13.1857249514 
-15.3893472265 -23.7396453916 6.36101881131 
-33.1517660187 -7.46447153722 -27.8577870291 
-24.2858152553 13.4766126749 -3.61104748295 
2.5771302873e-10 38.8688097837 4.08527652802 
2.17077458635e-10 4.6675894962 26.476619827 
2.17399317233e-10 -26.8452787611 -2.82155249469 
2.46924174635e-10 13.5087101424 -33.4352308804 
2.02942431331e-10 21.6792426606 2.27858022099 
26.9676277759 21.128881795 14.2516107221 
26.0280673482 6.84373435672 22.3862438535 
24.6757129483 -16.7483203773 -11.2968847373 
26.2921558066 23.9120388409 -2.09203232037 
47.2185947508 0.0 0.0 
-22.4147992332 9.27800910362 -2.48603504669 
-18.8365346529 2.9794921821 11.1196162046 
-14.2787307018 -20.3033165184 5.44025726479 
-18.8591070698 -3.00805060958 -11.2261977069 
1.74476847693e-10 5.17725924541 0.544151873763 
1.8118892927e-10 1.953956313 11.0836993056 
1.97089538785e-10 -19.3236961472 -2.03100230607 
1.89963598352e-10 6.06927880751 -15.0219921863 
21.7780451422 9.58172907633 6.46295786806 
22.4433418112 4.06767939274 13.3056103667 
22.4767919068 -11.6257544423 -7.84167038608 
22.5500696672 14.2068532995 -1.24293860808 
42.5761747245 0.0 0.0 
29.6651238258 18.440675734 24.9211429579 
2.68755231803e-10 30.767977631 28.6926072987 
-24.0797408596 31.6706467472 18.2850564249 
26.9665570935 -20.4852677163 15.1583007217 
2.32627347889e-10 -21.7219585595 23.2939486797 
-17.4759507637 -11.9414991212 20.6832831966 
29.0594596319 7.46358570655 -28.8595445869 
2.56848750594e-10 -20.0065979871 -33.2965705419 
-19.803783532 -27.7858710716 -16.0421801429 
29.6468997289 29.9801719586 7.75284140359 
2.89336218463e-10 40.6498698565 -24.4249059654 
-28.1235832298 23.380507258 -40.4962264779 
26.8357787566 -7.89190956924 23.932968839 
2.29543902206e-10 -8.77701715944 29.6307133498 
-20.0274301739 -3.83336215811 29.117276379 
28.8598017127 22.4472408869 -19.0029921264 
2.64602399948e-10 -3.21352467654 -40.8317024622 
-20.7904455887 -19.3376888586 -25.2013667728 
22.255202521 7.90091944166 10.6774798139 
1.74293719183e-10 3.61530499689 3.37132645059 
-20.0114230475 6.12723207957 3.53755909053 
20.4012068532 -3.12691191517 2.31379310228 
1.89097773221e-10 -10.757602742 11.5361165754 
-17.2560389681 -9.33793769944 16.1737825335 
23.3319810278 4.16378174787 -16.1001494091 
1.97668754701e-10 -10.1328633709 -16.8639166058 
-17.740612973 -17.8908940777 -10.3293125118 
21.4744214687 10.0049651556 2.58745992012 
1.75762737432e-10 5.80624641205 -3.48874481338 
-20.5876940249 5.08580761944 -8.80887719446 
20.6012641383 -1.76769222615 5.36069535443 
1.90113080676e-10 -4.62226564325 15.604507296 
-18.0423401362 -1.95185169521 14.8257855418 
21.9156453843 9.21718182215 -7.80292038904 
1.98878542854e-10 -1.58299896545 -20.1139089509 
-18.5158744464 -10.3219860738 -13.4518741496 
26.4351182462 14.4669999469 19.551028338 
2.38091669668e-10 24.4942685243 22.8420741936 
-22.5690551784 19.324009254 11.1567219446 
26.4208222715 23.5162432138 6.08127612798 
2.60148741893e-10 34.0726101289 -20.472889614 
-29.7835356799 17.5314082211 -30.3652897675 
2.07814952303e-10 17.2859190578 16.1199443549 
-23.8381099903 12.4958671963 7.21449228954 
2.33093138077e-10 27.4226431198 -16.4771863204 
-29.0621338996 11.5925540898 -20.0788926731 
23.1105692374 -5.00649679511 15.1826792665 
2.05225536271e-10 -6.43937498194 21.7389656162 
-18.7740193905 -2.80912429722 21.3374174345 
22.9672126127 -12.5078170774 9.25529777091 
2.08909707336e-10 -16.3918554602 17.5781128948 
-17.3004245374 -10.5122449786 18.2077424047 
25.3873892732 5.49008861587 -21.2285975435 
2.2556610001e-10 -15.2742510488 -25.420622629 
-18.4607659308 -22.0201993275 -12.7133680094 
25.7213150002 17.3306448842 -14.6714738768 
2.32286356163e-10 -2.49080085036 -31.6486255597 
-19.1902021958 -13.9993520902 -18.2443108474 
2.73587079306e-10 43.1125980662 4.53131665008 
2.74099438965e-10 37.273795135 -22.3963556183 
-24.8842497565 37.3582200912 -10.0101049041 
-29.0907324675 20.3348471115 -35.2209883616 
-28.0259964427 43.6165672259 -11.6870239648 
2.58926695606e-10 14.7655149063 -36.5459318288 
-28.6821150931 -8.49268881492 -31.6951461507 
-19.1902021958 -13.9993520902 -18.2443108474 
2.47418670178e-10 -2.84038754905 -36.0905457261 
-19.9236039868 -16.5707607235 -21.5954358223 
2.40156120685e-10 -17.5635385775 -29.2306368923 
-19.0928334551 -24.825254933 -14.3328676183 
2.31285452715e-10 -31.2679924092 -3.28639843048 
-15.7937511396 -24.6491647039 6.60472377652 
2.19937754167e-10 -18.9851940149 20.3591280154 
-17.3831766061 -11.2183701018 19.4307869946 
2.16448717344e-10 -7.57543716306 25.5742472643 
-19.3471588757 -3.30443234778 25.0996555967 
2.28424417737e-10 5.30483872673 30.0913776426 
-22.2435258551 5.53584885926 20.6600692061 
2.52551672365e-10 27.5360718289 25.6787009212 
-23.2450626372 25.1018109782 14.4925373254 
28.5159747607 23.8087744018 16.0592211096 
27.9362399445 26.6550635036 6.89297180255 
27.5020595083 26.5240776851 -2.32055610792 
27.1894458168 19.8152536081 -16.7748504235 
27.0832030082 6.44347649922 -24.9150749566 
26.4903490998 -20.2648193017 -13.6687932113 
24.7239509786 -16.3360270189 12.0880241146 
24.7639624898 -6.39517530737 19.3939793669 
27.2089128967 7.60235348282 24.86773011 
27.9524433587 16.3965413796 22.158653925 
50.2792915378 0.0 0.0 
1.84285098978e-10 13.1134083154 1.37827475272 
1.94881234654e-10 15.8385568266 -9.51676505934 
-23.2795053163 11.3610450097 -3.04418283552 
-24.1245178355 8.28277029292 -14.3461789749 
2.12964047399e-10 9.54342974215 -23.6208174915 
-24.647541403 -5.21050874622 -19.4458833745 
2.13713203934e-10 -2.01923860872 -25.656859172 
-18.8159105486 -12.1141647141 -15.7874868263 
2.10201361663e-10 -12.6185496953 -21.000793355 
-18.0787979622 -19.9156848166 -11.49832599 
2.06415582646e-10 -22.9921642463 -2.41657384023 
-14.8145541587 -22.0020390788 5.89542860301 
1.97973192807e-10 -13.5044319161 14.4817302335 
-17.2748870053 -9.91929329984 17.1807199706 
1.97047695651e-10 -5.51342748184 18.6130192435 
-18.3584900346 -2.36912490484 17.9952902401 
1.95421657833e-10 3.24906519543 18.4301263088 
-20.8786987677 3.27042851699 12.2054053881 
1.8549212145e-10 10.1464146629 9.46185028547 
-21.7178219718 9.31386694495 5.37736358786 
23.8800352096 15.0448321874 10.1478674449 
23.4438941764 16.4080373225 4.24325421278 
24.1817530943 18.8726379485 -1.65114187133 
23.5259141899 13.1108678635 -11.0991689373 
24.288986465 4.81292605284 -18.6102041936 
23.4767960829 -14.1271894383 -9.52890959523 
21.2958279725 -7.67734916616 5.68093954238 
21.5538992715 -3.34028972328 10.1297473266 
24.0066176056 5.40413703589 17.6772392377 
24.0364505529 11.0421410227 14.9225971411 
44.7388694505 0.0 0.0 
</DataArray>
</Points>
<Cells>
 <DataArray type="Int32" Name="connectivity" format="ascii">
0 1 2 3 4 5 6 7 8 9 10 11 12 13 14 15 16 17 18 19 20 21 22 23 24 25 26 27 28 29 30 31 32 33 34 35 36 37 38 39 40 41 42 43 44 45 46 47 48 49 50 51 52 53 54 55 56 57 58 59 60 61 62 63 64 65 66 67 68 69 70 71 72 73 74 75 76 77 78 79 80 81 82 83 84 85 86 87 88 89 90 91 92 93 94 95 96 97 98 99 100 101 102 103 104 105 106 107 108 109 110 111 112 113 114 115 116 117 118 119 120 121 122 123 124 125 126 127 128 129 130 131 132 133 134 135 136 137 138 139 140 141 142 143 144 145 146 147 148 149 150 151 152 153 154 155 156 157 158 159 160 161 162 18 99 100 81 13 101 102 82 
99 4 51 100 101 103 52 102 
81 100 104 21 82 102 105 16 
100 51 7 104 102 52 3 105 
21 104 107 97 16 105 108 106 
104 7 57 107 105 3 58 108 
97 107 109 94 106 108 110 95 
107 57 48 109 108 58 49 110 
94 109 111 20 95 110 112 15 
109 48 6 111 110 49 2 112 
20 111 113 91 15 112 114 92 
111 6 45 113 112 2 46 114 
91 113 115 88 92 114 116 89 
113 45 54 115 114 46 55 116 
88 115 117 19 89 116 118 14 
115 54 5 117 116 55 1 118 
19 117 119 78 14 118 120 79 
117 5 42 119 118 1 43 120 
78 119 99 18 79 120 101 13 
119 42 4 99 120 43 103 101 
23 121 122 80 18 99 100 81 
121 8 50 122 99 4 51 100 
80 122 123 26 81 100 104 21 
122 50 11 123 100 51 7 104 
26 123 124 96 21 104 107 97 
123 11 56 124 104 7 57 107 
96 124 125 93 97 107 109 94 
124 56 47 125 107 57 48 109 
93 125 126 25 94 109 111 20 
125 47 10 126 109 48 6 111 
25 126 127 90 20 111 113 91 
126 10 44 127 111 6 45 113 
90 127 128 87 91 113 115 88 
127 44 53 128 113 45 54 115 
87 128 129 24 88 115 117 19 
128 53 9 129 115 54 5 117 
24 129 130 77 19 117 119 78 
129 9 41 130 117 5 42 119 
77 130 121 23 78 119 99 18 
130 41 8 121 119 42 4 99 
27 23 80 131 121 122 
131 121 122 12 8 50 
27 80 26 131 122 123 
131 122 123 12 50 11 
27 26 96 131 123 124 
131 123 124 12 11 56 
27 96 93 131 124 125 
131 124 125 12 56 47 
27 93 25 131 125 126 
131 125 126 12 47 10 
27 25 90 131 126 127 
131 126 127 12 10 44 
27 90 87 131 127 128 
131 127 128 12 44 53 
27 87 24 131 128 129 
131 128 129 12 53 9 
27 24 77 131 129 130 
131 129 130 12 9 41 
27 77 23 131 130 121 
131 130 121 12 41 8 
32 132 133 69 28 134 135 70 
132 22 85 133 134 17 86 135 
69 133 136 35 70 135 137 31 
133 85 21 136 135 86 16 137 
35 136 138 75 31 137 139 76 
136 21 97 138 137 16 106 139 
75 138 140 66 76 139 141 67 
138 97 94 140 139 106 95 141 
66 140 142 34 67 141 143 30 
140 94 20 142 141 95 15 143 
34 142 144 63 30 143 145 64 
142 20 91 144 143 15 92 145 
63 144 146 72 64 145 147 73 
144 91 88 146 145 92 89 147 
72 146 148 33 73 147 149 29 
146 88 19 148 147 89 14 149 
33 148 150 60 29 149 151 61 
148 19 83 150 149 14 84 151 
60 150 132 32 61 151 134 28 
150 83 22 132 151 84 17 134 
36 152 153 68 32 132 133 69 
152 23 80 153 132 22 85 133 
68 153 154 39 69 133 136 35 
153 80 26 154 133 85 21 136 
39 154 155 74 35 136 138 75 
154 26 96 155 136 21 97 138 
74 155 156 65 75 138 140 66 
155 96 93 156 138 97 94 140 
65 156 157 38 66 140 142 34 
156 93 25 157 140 94 20 142 
38 157 158 62 34 142 144 63 
157 25 90 158 142 20 91 144 
62 158 159 71 63 144 146 72 
158 90 87 159 144 91 88 146 
71 159 160 37 72 146 148 33 
159 87 24 160 146 88 19 148 
37 160 161 59 33 148 150 60 
160 24 77 161 148 19 83 150 
59 161 152 36 60 150 132 32 
161 77 23 152 150 83 22 132 
40 36 68 162 152 153 
162 152 153 27 23 80 
40 68 39 162 153 154 
162 153 154 27 80 26 
40 39 74 162 154 155 
162 154 155 27 26 96 
40 74 65 162 155 156 
162 155 156 27 96 93 
40 65 38 162 156 157 
162 156 157 27 93 25 
40 38 62 162 157 158 
162 157 158 27 25 90 
40 62 71 162 158 159 
162 158 159 27 90 87 
40 71 37 162 159 160 
162 159 160 27 87 24 
40 37 59 162 160 161 
162 160 161 27 24 77 
40 59 36 162 161 152 
162 161 152 27 77 23 
</DataArray>
<DataArray type="Int32" Name="offsets" format="ascii">
1 2 3 4 5 6 7 8 9 10 11 12 13 14 15 16 17 18 19 20 21 22 23 24 25 26 27 28 29 30 31 32 33 34 35 36 37 38 39 40 41 42 43 44 45 46 47 48 49 50 51 52 53 54 55 56 57 58 59 60 61 62 63 64 65 66 67 68 69 70 71 72 73 74 75 76 77 78 79 80 81 82 83 84 85 86 87 88 89 90 91 92 93 94 95 96 97 98 99 100 101 102 103 104 105 106 107 108 109 110 111 112 113 114 115 116 117 118 119 120 121 122 123 124 125 126 127 128 129 130 131 132 133 134 135 136 137 138 139 140 141 142 143 144 145 146 147 148 149 150 151 152 153 154 155 156 157 158 159 160 161 162 163 171 179 187 195 203 211 219 227 235 243 251 259 267 275 283 291 299 307 315 323 331 339 347 355 363 371 379 387 395 403 411 419 427 435 443 451 459 467 475 483 489 495 501 507 513 519 525 531 537 543 549 555 561 567 573 579 585 591 597 603 611 619 627 635 643 651 659 667 675 683 691 699 707 715 723 731 739 747 755 763 771 779 787 795 803 811 819 827 835 843 851 859 867 875 883 891 899 907 915 923 929 935 941 947 953 959 965 971 977 983 989 995 1001 1007 1013 1019 1025 1031 1037 1043 </DataArray>
<DataArray type="Int8" Name="types" format="ascii">
1 1 1 1 1 1 1 1 1 1 1 1 1 1 1 1 1 1 1 1 1 1 1 1 1 1 1 1 1 1 1 1 1 1 1 1 1 1 1 1 1 1 1 1 1 1 1 1 1 1 1 1 1 1 1 1 1 1 1 1 1 1 1 1 1 1 1 1 1 1 1 1 1 1 1 1 1 1 1 1 1 1 1 1 1 1 1 1 1 1 1 1 1 1 1 1 1 1 1 1 1 1 1 1 1 1 1 1 1 1 1 1 1 1 1 1 1 1 1 1 1 1 1 1 1 1 1 1 1 1 1 1 1 1 1 1 1 1 1 1 1 1 1 1 1 1 1 1 1 1 1 1 1 1 1 1 1 1 1 1 1 1 1 12 12 12 12 12 12 12 12 12 12 12 12 12 12 12 12 12 12 12 12 12 12 12 12 12 12 12 12 12 12 12 12 12 12 12 12 12 12 12 12 13 13 13 13 13 13 13 13 13 13 13 13 13 13 13 13 13 13 13 13 12 12 12 12 12 12 12 12 12 12 12 12 12 12 12 12 12 12 12 12 12 12 12 12 12 12 12 12 12 12 12 12 12 12 12 12 12 12 12 12 13 13 13 13 13 13 13 13 13 13 13 13 13 13 13 13 13 13 13 13 </DataArray>
</Cells>
<PointData>
</PointData>
<CellData>
<DataArray type="Int32" Name="regions" NumberOfComponents="1" format="ascii">
0 0 0 0 0 0 0 0 0 0 0 0 0 0 0 0 0 0 0 0 0 0 0 0 0 0 0 0 0 0 0 0 0 0 0 0 0 0 0 0 0 0 0 0 0 0 0 0 0 0 0 0 0 0 0 0 0 0 0 0 0 0 0 0 0 0 0 0 0 0 0 0 0 0 0 0 0 0 0 0 0 0 0 0 0 0 0 0 0 0 0 0 0 0 0 0 0 0 0 0 0 0 0 0 0 0 0 0 0 0 0 0 0 0 0 0 0 0 0 0 0 0 0 0 0 0 0 0 0 0 0 0 0 0 0 0 0 0 0 0 0 0 0 0 0 0 0 0 0 0 0 0 0 0 0 0 0 0 0 0 0 0 0 1 
2 
3 
4 
5 
6 
7 
8 
9 
10 
11 
12 
13 
14 
15 
16 
17 
18 
19 
20 
21 
22 
23 
24 
25 
26 
27 
28 
29 
30 
31 
32 
33 
34 
35 
36 
37 
38 
39 
40 
41 
42 
43 
44 
45 
46 
47 
48 
49 
50 
51 
52 
53 
54 
55 
56 
57 
58 
59 
60 
61 
62 
63 
64 
65 
66 
67 
68 
69 
70 
71 
72 
73 
74 
75 
76 
77 
78 
79 
80 
81 
82 
83 
84 
85 
86 
87 
88 
89 
90 
91 
92 
93 
94 
95 
96 
97 
98 
99 
100 
101 
102 
103 
104 
105 
106 
107 
108 
109 
110 
111 
112 
113 
114 
115 
116 
117 
118 
119 
120 
</DataArray>
</CellData>
<RegionInfo Name="regions">
<Region Name="subset"></Region>
<Region Name="cell 1"></Region>
<Region Name="cell 2"></Region>
<Region Name="cell 3"></Region>
<Region Name="cell 4"></Region>
<Region Name="cell 5"></Region>
<Region Name="cell 6"></Region>
<Region Name="cell 7"></Region>
<Region Name="cell 8"></Region>
<Region Name="cell 9"></Region>
<Region Name="cell 10"></Region>
<Region Name="cell 11"></Region>
<Region Name="cell 12"></Region>
<Region Name="cell 13"></Region>
<Region Name="cell 14"></Region>
<Region Name="cell 15"></Region>
<Region Name="cell 16"></Region>
<Region Name="cell 17"></Region>
<Region Name="cell 18"></Region>
<Region Name="cell 19"></Region>
<Region Name="cell 20"></Region>
<Region Name="cell 21"></Region>
<Region Name="cell 22"></Region>
<Region Name="cell 23"></Region>
<Region Name="cell 24"></Region>
<Region Name="cell 25"></Region>
<Region Name="cell 26"></Region>
<Region Name="cell 27"></Region>
<Region Name="cell 28"></Region>
<Region Name="cell 29"></Region>
<Region Name="cell 30"></Region>
<Region Name="cell 31"></Region>
<Region Name="cell 32"></Region>
<Region Name="cell 33"></Region>
<Region Name="cell 34"></Region>
<Region Name="cell 35"></Region>
<Region Name="cell 36"></Region>
<Region Name="cell 37"></Region>
<Region Name="cell 38"></Region>
<Region Name="cell 39"></Region>
<Region Name="cell 40"></Region>
<Region Name="cell 41"></Region>
<Region Name="cell 42"></Region>
<Region Name="cell 43"></Region>
<Region Name="cell 44"></Region>
<Region Name="cell 45"></Region>
<Region Name="cell 46"></Region>
<Region Name="cell 47"></Region>
<Region Name="cell 48"></Region>
<Region Name="cell 49"></Region>
<Region Name="cell 50"></Region>
<Region Name="cell 51"></Region>
<Region Name="cell 52"></Region>
<Region Name="cell 53"></Region>
<Region Name="cell 54"></Region>
<Region Name="cell 55"></Region>
<Region Name="cell 56"></Region>
<Region Name="cell 57"></Region>
<Region Name="cell 58"></Region>
<Region Name="cell 59"></Region>
<Region Name="cell 60"></Region>
<Region Name="cell 61"></Region>
<Region Name="cell 62"></Region>
<Region Name="cell 63"></Region>
<Region Name="cell 64"></Region>
<Region Name="cell 65"></Region>
<Region Name="cell 66"></Region>
<Region Name="cell 67"></Region>
<Region Name="cell 68"></Region>
<Region Name="cell 69"></Region>
<Region Name="cell 70"></Region>
<Region Name="cell 71"></Region>
<Region Name="cell 72"></Region>
<Region Name="cell 73"></Region>
<Region Name="cell 74"></Region>
<Region Name="cell 75"></Region>
<Region Name="cell 76"></Region>
<Region Name="cell 77"></Region>
<Region Name="cell 78"></Region>
<Region Name="cell 79"></Region>
<Region Name="cell 80"></Region>
<Region Name="cell 81"></Region>
<Region Name="cell 82"></Region>
<Region Name="cell 83"></Region>
<Region Name="cell 84"></Region>
<Region Name="cell 85"></Region>
<Region Name="cell 86"></Region>
<Region Name="cell 87"></Region>
<Region Name="cell 88"></Region>
<Region Name="cell 89"></Region>
<Region Name="cell 90"></Region>
<Region Name="cell 91"></Region>
<Region Name="cell 92"></Region>
<Region Name="cell 93"></Region>
<Region Name="cell 94"></Region>
<Region Name="cell 95"></Region>
<Region Name="cell 96"></Region>
<Region Name="cell 97"></Region>
<Region Name="cell 98"></Region>
<Region Name="cell 99"></Region>
<Region Name="cell 100"></Region>
<Region Name="cell 101"></Region>
<Region Name="cell 102"></Region>
<Region Name="cell 103"></Region>
<Region Name="cell 104"></Region>
<Region Name="cell 105"></Region>
<Region Name="cell 106"></Region>
<Region Name="cell 107"></Region>
<Region Name="cell 108"></Region>
<Region Name="cell 109"></Region>
<Region Name="cell 110"></Region>
<Region Name="cell 111"></Region>
<Region Name="cell 112"></Region>
<Region Name="cell 113"></Region>
<Region Name="cell 114"></Region>
<Region Name="cell 115"></Region>
<Region Name="cell 116"></Region>
<Region Name="cell 117"></Region>
<Region Name="cell 118"></Region>
<Region Name="cell 119"></Region>
<Region Name="cell 120"></Region>
</RegionInfo>
</Piece></UnstructuredGrid> 
</VTKFile>